title                   = OPLS GAG+ NVT equilibration 
define                  = -DPOSRES  ; position restrain the protein
; Run parameters
integrator              = md        ; leap-frog integrator
nsteps                  = 500000    ; 2 * 500000 = 1000 ps = 1 ns
dt                      = 0.002     ; 2 fs

; Output control
nstxout                 = 500      ; save coordinates every 1.0 ps
nstvout                 = 500      ; save velocities every 1.0 ps
nstenergy               = 500      ; save energies every 1.0 ps
nstlog                  = 500      ; update log file every 1.0 ps

; Bond parameters
continuation            = no        ; first dynamics run
constraint_algorithm    = lincs     ; holonomic constraints 
constraints             = h-bonds   ; bonds involving H are constrained
lincs_iter              = 1         ; accuracy of LINCS
lincs_order             = 4         ; also related to accuracy

; Nonbonded settings 
cutoff-scheme           = Verlet    ; Buffered neighbor searching
nstlist                 = 10        ; 20 fs, largely irrelevant with Verlet

; van der Waals
vdwtype                 = Cut-off
vdw-modifier            = Force-switch
rvdw-switch             = 0.9
rvdw                    = 1.0
DispCorr                = EnerPres

; Electrostatics
rcoulomb                = 1.0       ; short-range electrostatic cutoff (in nm)
coulombtype             = PME       ; Particle Mesh Ewald for long-range electrostatics
pme_order               = 4         ; cubic interpolation
fourierspacing          = 0.12      ; grid spacing for FFT

; Temperature coupling is on
tcoupl                  = V-rescale ; stochastic Bussi thermostat 
tc-grps                 = Protein non-Protein ; rescaling separately protein and the environment
tau_t                   = 1.0 1.0   ; value of tau (ps)
ref_t                   = 303 303   ; temperature (K) 

; Pressure coupling is off
pcoupl                  = no        ; no pressure coupling in NVT

; Periodic boundary conditions
pbc                     = xyz       ; 3-D PBC

; Velocity generation
gen_vel                 = yes       ; assign velocities from Maxwell distribution
gen_temp                = 303       ; temperature for Maxwell distribution
gen_seed                = -1        ; generate a random seed
